# vtk DataFile Version 5.1
vtk output
ASCII
DATASET POLYDATA
POINTS 122 float
0 0 0 0 0 0.02 0 0 0.04 
0 0 0.06 0 0 0.08 0 0 0.1 
0 0 0.12 0 0 0.14 0 0 0.16 
0 0 0.18 0 0 0.2 0 0 0.22 
0 0 0.24 0 0 0.26 0 0 0.28 
0 0 0.3 0 0 0.32 0 0 0.34 
0 0 0.36 0 0 0.38 0 0 0.4 
0 0 0.42 0 0 0.44 0 0 0.46 
0 0 0.48 0 0 0.5 0 0 0.52 
0 0 0.54 0 0 0.56 0 0 0.58 
0 0 0.6 0.02 0 0 0.04 0 0 
0.06 0 0 0.08 0 0 0.1 0 0 
0.12 0 0 0.14 0 0 0.16 0 0 
0.18 0 0 0.2 0 0 0.22 0 0 
0.24 0 0 0.25444 0 0.013889 0.26889 0 0.027778 
0.28333 0 0.041667 0.29778 0 0.055556 0.31222 0 0.069444 
0.32667 0 0.083333 0.34111 0 0.097222 0.35556 0 0.11111 
0.37 0 0.125 0.38444 0 0.13889 0.39889 0 0.15278 
0.41333 0 0.16667 0.42778 0 0.18056 0.44222 0 0.19444 
0.45667 0 0.20833 0.47111 0 0.22222 0.48556 0 0.23611 
0.5 0 0.25 0.51389 0 0.23611 0.52778 0 0.22222 
0.54167 0 0.20833 0.55556 0 0.19444 0.56944 0 0.18056 
0.58333 0 0.16667 0.59722 0 0.15278 0.61111 0 0.13889 
0.625 0 0.125 0.63889 0 0.11111 0.65278 0 0.097222 
0.66667 0 0.083333 0.68056 0 0.069444 0.69444 0 0.055556 
0.70833 0 0.041667 0.72222 0 0.027778 0.73611 0 0.013889 
0.75 0 0 0.76923 0 0 0.78846 0 0 
0.80769 0 0 0.82692 0 0 0.84615 0 0 
0.86538 0 0 0.88462 0 0 0.90385 0 0 
0.92308 0 0 0.94231 0 0 0.96154 0 0 
0.98077 0 0 1 0 0.58 1 0 0.6 
1 0 0 1 0 0.02 1 0 0.04 
1 0 0.06 1 0 0.08 1 0 0.1 
1 0 0.12 1 0 0.14 1 0 0.16 
1 0 0.18 1 0 0.2 1 0 0.22 
1 0 0.24 1 0 0.26 1 0 0.28 
1 0 0.3 1 0 0.32 1 0 0.34 
1 0 0.36 1 0 0.38 1 0 0.4 
1 0 0.42 1 0 0.44 1 0 0.46 
1 0 0.48 1 0 0.5 1 0 0.52 
1 0 0.54 1 0 0.56 
VERTICES 123 122
OFFSETS vtktypeint64
0 1 2 3 4 5 6 7 8 
9 10 11 12 13 14 15 16 17 
18 19 20 21 22 23 24 25 26 
27 28 29 30 31 32 33 34 35 
36 37 38 39 40 41 42 43 44 
45 46 47 48 49 50 51 52 53 
54 55 56 57 58 59 60 61 62 
63 64 65 66 67 68 69 70 71 
72 73 74 75 76 77 78 79 80 
81 82 83 84 85 86 87 88 89 
90 91 92 93 94 95 96 97 98 
99 100 101 102 103 104 105 106 107 
108 109 110 111 112 113 114 115 116 
117 118 119 120 121 122 
CONNECTIVITY vtktypeint64
0 1 2 3 4 5 6 7 8 
9 10 11 12 13 14 15 16 17 
18 19 20 21 22 23 24 25 26 
27 28 29 30 31 32 33 34 35 
36 37 38 39 40 41 42 43 44 
45 46 47 48 49 50 51 52 53 
54 55 56 57 58 59 60 61 62 
63 64 65 66 67 68 69 70 71 
72 73 74 75 76 77 78 79 80 
81 82 83 84 85 86 87 88 89 
90 91 92 93 94 95 96 97 98 
99 100 101 102 103 104 105 106 107 
108 109 110 111 112 113 114 115 116 
117 118 119 120 121 
POINT_DATA 122
FIELD FieldData 3
Velocity 3 122 float
0 0 0 0 0 0 0 0 0 
0 0 0 0 0 0 0 0 0 
0 0 0 0 0 0 0 0 0 
0 0 0 0 0 0 0 0 0 
0 0 0 0 0 0 0 0 0 
0 0 0 0 0 0 0 0 0 
0 0 0 0 0 0 0 0 0 
0 0 0 0 0 0 0 0 0 
0 0 0 0 0 0 0 0 0 
0 0 0 0 0 0 0 0 0 
0 0 0 0 0 0 0 0 0 
0 0 0 0 0 0 0 0 0 
0 0 0 0 0 0 0 0 0 
0 0 0 0 0 0 0 0 0 
0 0 0 0 0 0 0 0 0 
0 0 0 0 0 0 0 0 0 
0 0 0 0 0 0 0 0 0 
0 0 0 0 0 0 0 0 0 
0 0 0 0 0 0 0 0 0 
0 0 0 0 0 0 0 0 0 
0 0 0 0 0 0 0 0 0 
0 0 0 0 0 0 0 0 0 
0 0 0 0 0 0 0 0 0 
0 0 0 0 0 0 0 0 0 
0 0 0 0 0 0 0 0 0 
0 0 0 0 0 0 0 0 0 
0 0 0 0 0 0 0 0 0 
0 0 0 0 0 0 0 0 0 
0 0 0 0 0 0 0 0 0 
0 0 0 0 0 0 0 0 0 
0 0 0 0 0 0 0 0 0 
0 0 0 0 0 0 0 0 0 
0 0 0 0 0 0 0 0 0 
0 0 0 0 0 0 0 0 0 
0 0 0 0 0 0 0 0 0 
0 0 0 0 0 0 0 0 0 
0 0 0 0 0 0 0 0 0 
0 0 0 0 0 0 0 0 0 
0 0 0 0 0 0 0 0 0 
0 0 0 0 0 0 0 0 0 
0 0 0 0 0 0 
Density 1 122 float
1000 1000 1000 1000 1000 1000 1000 1000 1000 
1000 1000 1000 1000 1000 1000 1000 1000 1000 
1000 1000 1000 1000 1000 1000 1000 1000 1000 
1000 1000 1000 1000 1000 1000 1000 1000 1000 
1000 1000 1000 1000 1000 1000 1000 1000 1000 
1000 1000 1000 1000 1000 1000 1000 1000 1000 
1000 1000 1000 1000 1000 1000 1000 1000 1000 
1000 1000 1000 1000 1000 1000 1000 1000 1000 
1000 1000 1000 1000 1000 1000 1000 1000 1000 
1000 1000 1000 1000 1000 1000 1000 1000 1000 
1000 1000 1000 1000 1000 1000 1000 1000 1000 
1000 1000 1000 1000 1000 1000 1000 1000 1000 
1000 1000 1000 1000 1000 1000 1000 1000 1000 
1000 1000 1000 1000 1000 
Pressure 1 122 float
0 0 0 0 0 0 0 0 0 
0 0 0 0 0 0 0 0 0 
0 0 0 0 0 0 0 0 0 
0 0 0 0 0 0 0 0 0 
0 0 0 0 0 0 0 0 0 
0 0 0 0 0 0 0 0 0 
0 0 0 0 0 0 0 0 0 
0 0 0 0 0 0 0 0 0 
0 0 0 0 0 0 0 0 0 
0 0 0 0 0 0 0 0 0 
0 0 0 0 0 0 0 0 0 
0 0 0 0 0 0 0 0 0 
0 0 0 0 0 0 0 0 0 
0 0 0 0 0 
