# vtk DataFile Version 5.1
vtk output
ASCII
DATASET POLYDATA
POINTS 241 float
0 0 0 0 0 0.01 0 0 0.02 
0 0 0.03 0 0 0.04 0 0 0.05 
0 0 0.06 0 0 0.07 0 0 0.08 
0 0 0.09 0 0 0.1 0 0 0.11 
0 0 0.12 0 0 0.13 0 0 0.14 
0 0 0.15 0 0 0.16 0 0 0.17 
0 0 0.18 0 0 0.19 0 0 0.2 
0 0 0.21 0 0 0.22 0 0 0.23 
0 0 0.24 0 0 0.25 0 0 0.26 
0 0 0.27 0 0 0.28 0 0 0.29 
0 0 0.3 0 0 0.31 0 0 0.32 
0 0 0.33 0 0 0.34 0 0 0.35 
0 0 0.36 0 0 0.37 0 0 0.38 
0 0 0.39 0 0 0.4 0 0 0.41 
0 0 0.42 0 0 0.43 0 0 0.44 
0 0 0.45 0 0 0.46 0 0 0.47 
0 0 0.48 0 0 0.49 0 0 0.5 
0 0 0.51 0 0 0.52 0 0 0.53 
0 0 0.54 0 0 0.55 0 0 0.56 
0 0 0.57 0 0 0.58 0 0 0.59 
0 0 0.6 0.01 0 0 0.02 0 0 
0.03 0 0 0.04 0 0 0.05 0 0 
0.06 0 0 0.07 0 0 0.08 0 0 
0.09 0 0 0.1 0 0 0.11 0 0 
0.12 0 0 0.13 0 0 0.14 0 0 
0.15 0 0 0.16 0 0 0.17 0 0 
0.18 0 0 0.19 0 0 0.2 0 0 
0.21 0 0 0.22 0 0 0.23 0 0 
0.24 0 0 0.25 0 0 0.25714 0 0.0071429 
0.26429 0 0.014286 0.27143 0 0.021429 0.27857 0 0.028571 
0.28571 0 0.035714 0.29286 0 0.042857 0.3 0 0.05 
0.30714 0 0.057143 0.31429 0 0.064286 0.32143 0 0.071429 
0.32857 0 0.078571 0.33571 0 0.085714 0.34286 0 0.092857 
0.35 0 0.1 0.35714 0 0.10714 0.36429 0 0.11429 
0.37143 0 0.12143 0.37857 0 0.12857 0.38571 0 0.13571 
0.39286 0 0.14286 0.4 0 0.15 0.40714 0 0.15714 
0.41429 0 0.16429 0.42143 0 0.17143 0.42857 0 0.17857 
0.43571 0 0.18571 0.44286 0 0.19286 0.45 0 0.2 
0.45714 0 0.20714 0.46429 0 0.21429 0.47143 0 0.22143 
0.47857 0 0.22857 0.48571 0 0.23571 0.49286 0 0.24286 
0.5 0 0.25 0.50714 0 0.24286 0.51429 0 0.23571 
0.52143 0 0.22857 0.52857 0 0.22143 0.53571 0 0.21429 
0.54286 0 0.20714 0.55 0 0.2 0.55714 0 0.19286 
0.56429 0 0.18571 0.57143 0 0.17857 0.57857 0 0.17143 
0.58571 0 0.16429 0.59286 0 0.15714 0.6 0 0.15 
0.60714 0 0.14286 0.61429 0 0.13571 0.62143 0 0.12857 
0.62857 0 0.12143 0.63571 0 0.11429 0.64286 0 0.10714 
0.65 0 0.1 0.65714 0 0.092857 0.66429 0 0.085714 
0.67143 0 0.078571 0.67857 0 0.071429 0.68571 0 0.064286 
0.69286 0 0.057143 0.7 0 0.05 0.70714 0 0.042857 
0.71429 0 0.035714 0.72143 0 0.028571 0.72857 0 0.021429 
0.73571 0 0.014286 0.74286 0 0.0071429 0.75 0 0 
0.76 0 0 0.77 0 0 0.78 0 0 
0.79 0 0 0.8 0 0 0.81 0 0 
0.82 0 0 0.83 0 0 0.84 0 0 
0.85 0 0 0.86 0 0 0.87 0 0 
0.88 0 0 0.89 0 0 0.9 0 0 
0.91 0 0 0.92 0 0 0.93 0 0 
0.94 0 0 0.95 0 0 0.96 0 0 
0.97 0 0 0.98 0 0 0.99 0 0 
1 0 0.6 1 0 0 1 0 0.01 
1 0 0.02 1 0 0.03 1 0 0.04 
1 0 0.05 1 0 0.06 1 0 0.07 
1 0 0.08 1 0 0.09 1 0 0.1 
1 0 0.11 1 0 0.12 1 0 0.13 
1 0 0.14 1 0 0.15 1 0 0.16 
1 0 0.17 1 0 0.18 1 0 0.19 
1 0 0.2 1 0 0.21 1 0 0.22 
1 0 0.23 1 0 0.24 1 0 0.25 
1 0 0.26 1 0 0.27 1 0 0.28 
1 0 0.29 1 0 0.3 1 0 0.31 
1 0 0.32 1 0 0.33 1 0 0.34 
1 0 0.35 1 0 0.36 1 0 0.37 
1 0 0.38 1 0 0.39 1 0 0.4 
1 0 0.41 1 0 0.42 1 0 0.43 
1 0 0.44 1 0 0.45 1 0 0.46 
1 0 0.47 1 0 0.48 1 0 0.49 
1 0 0.5 1 0 0.51 1 0 0.52 
1 0 0.53 1 0 0.54 1 0 0.55 
1 0 0.56 1 0 0.57 1 0 0.58 
1 0 0.59 
VERTICES 242 241
OFFSETS vtktypeint64
0 1 2 3 4 5 6 7 8 
9 10 11 12 13 14 15 16 17 
18 19 20 21 22 23 24 25 26 
27 28 29 30 31 32 33 34 35 
36 37 38 39 40 41 42 43 44 
45 46 47 48 49 50 51 52 53 
54 55 56 57 58 59 60 61 62 
63 64 65 66 67 68 69 70 71 
72 73 74 75 76 77 78 79 80 
81 82 83 84 85 86 87 88 89 
90 91 92 93 94 95 96 97 98 
99 100 101 102 103 104 105 106 107 
108 109 110 111 112 113 114 115 116 
117 118 119 120 121 122 123 124 125 
126 127 128 129 130 131 132 133 134 
135 136 137 138 139 140 141 142 143 
144 145 146 147 148 149 150 151 152 
153 154 155 156 157 158 159 160 161 
162 163 164 165 166 167 168 169 170 
171 172 173 174 175 176 177 178 179 
180 181 182 183 184 185 186 187 188 
189 190 191 192 193 194 195 196 197 
198 199 200 201 202 203 204 205 206 
207 208 209 210 211 212 213 214 215 
216 217 218 219 220 221 222 223 224 
225 226 227 228 229 230 231 232 233 
234 235 236 237 238 239 240 241 
CONNECTIVITY vtktypeint64
0 1 2 3 4 5 6 7 8 
9 10 11 12 13 14 15 16 17 
18 19 20 21 22 23 24 25 26 
27 28 29 30 31 32 33 34 35 
36 37 38 39 40 41 42 43 44 
45 46 47 48 49 50 51 52 53 
54 55 56 57 58 59 60 61 62 
63 64 65 66 67 68 69 70 71 
72 73 74 75 76 77 78 79 80 
81 82 83 84 85 86 87 88 89 
90 91 92 93 94 95 96 97 98 
99 100 101 102 103 104 105 106 107 
108 109 110 111 112 113 114 115 116 
117 118 119 120 121 122 123 124 125 
126 127 128 129 130 131 132 133 134 
135 136 137 138 139 140 141 142 143 
144 145 146 147 148 149 150 151 152 
153 154 155 156 157 158 159 160 161 
162 163 164 165 166 167 168 169 170 
171 172 173 174 175 176 177 178 179 
180 181 182 183 184 185 186 187 188 
189 190 191 192 193 194 195 196 197 
198 199 200 201 202 203 204 205 206 
207 208 209 210 211 212 213 214 215 
216 217 218 219 220 221 222 223 224 
225 226 227 228 229 230 231 232 233 
234 235 236 237 238 239 240 
POINT_DATA 241
FIELD FieldData 3
Velocity 3 241 float
0 0 0 0 0 0 0 0 0 
0 0 0 0 0 0 0 0 0 
0 0 0 0 0 0 0 0 0 
0 0 0 0 0 0 0 0 0 
0 0 0 0 0 0 0 0 0 
0 0 0 0 0 0 0 0 0 
0 0 0 0 0 0 0 0 0 
0 0 0 0 0 0 0 0 0 
0 0 0 0 0 0 0 0 0 
0 0 0 0 0 0 0 0 0 
0 0 0 0 0 0 0 0 0 
0 0 0 0 0 0 0 0 0 
0 0 0 0 0 0 0 0 0 
0 0 0 0 0 0 0 0 0 
0 0 0 0 0 0 0 0 0 
0 0 0 0 0 0 0 0 0 
0 0 0 0 0 0 0 0 0 
0 0 0 0 0 0 0 0 0 
0 0 0 0 0 0 0 0 0 
0 0 0 0 0 0 0 0 0 
0 0 0 0 0 0 0 0 0 
0 0 0 0 0 0 0 0 0 
0 0 0 0 0 0 0 0 0 
0 0 0 0 0 0 0 0 0 
0 0 0 0 0 0 0 0 0 
0 0 0 0 0 0 0 0 0 
0 0 0 0 0 0 0 0 0 
0 0 0 0 0 0 0 0 0 
0 0 0 0 0 0 0 0 0 
0 0 0 0 0 0 0 0 0 
0 0 0 0 0 0 0 0 0 
0 0 0 0 0 0 0 0 0 
0 0 0 0 0 0 0 0 0 
0 0 0 0 0 0 0 0 0 
0 0 0 0 0 0 0 0 0 
0 0 0 0 0 0 0 0 0 
0 0 0 0 0 0 0 0 0 
0 0 0 0 0 0 0 0 0 
0 0 0 0 0 0 0 0 0 
0 0 0 0 0 0 0 0 0 
0 0 0 0 0 0 0 0 0 
0 0 0 0 0 0 0 0 0 
0 0 0 0 0 0 0 0 0 
0 0 0 0 0 0 0 0 0 
0 0 0 0 0 0 0 0 0 
0 0 0 0 0 0 0 0 0 
0 0 0 0 0 0 0 0 0 
0 0 0 0 0 0 0 0 0 
0 0 0 0 0 0 0 0 0 
0 0 0 0 0 0 0 0 0 
0 0 0 0 0 0 0 0 0 
0 0 0 0 0 0 0 0 0 
0 0 0 0 0 0 0 0 0 
0 0 0 0 0 0 0 0 0 
0 0 0 0 0 0 0 0 0 
0 0 0 0 0 0 0 0 0 
0 0 0 0 0 0 0 0 0 
0 0 0 0 0 0 0 0 0 
0 0 0 0 0 0 0 0 0 
0 0 0 0 0 0 0 0 0 
0 0 0 0 0 0 0 0 0 
0 0 0 0 0 0 0 0 0 
0 0 0 0 0 0 0 0 0 
0 0 0 0 0 0 0 0 0 
0 0 0 0 0 0 0 0 0 
0 0 0 0 0 0 0 0 0 
0 0 0 0 0 0 0 0 0 
0 0 0 0 0 0 0 0 0 
0 0 0 0 0 0 0 0 0 
0 0 0 0 0 0 0 0 0 
0 0 0 0 0 0 0 0 0 
0 0 0 0 0 0 0 0 0 
0 0 0 0 0 0 0 0 0 
0 0 0 0 0 0 0 0 0 
0 0 0 0 0 0 0 0 0 
0 0 0 0 0 0 0 0 0 
0 0 0 0 0 0 0 0 0 
0 0 0 0 0 0 0 0 0 
0 0 0 0 0 0 0 0 0 
0 0 0 0 0 0 0 0 0 
0 0 0 
Density 1 241 float
1000 1000 1000 1000 1000 1000 1000 1000 1000 
1000 1000 1000 1000 1000 1000 1000 1000 1000 
1000 1000 1000 1000 1000 1000 1000 1000 1000 
1000 1000 1000 1000 1000 1000 1000 1000 1000 
1000 1000 1000 1000 1000 1000 1000 1000 1000 
1000 1000 1000 1000 1000 1000 1000 1000 1000 
1000 1000 1000 1000 1000 1000 1000 1000 1000 
1000 1000 1000 1000 1000 1000 1000 1000 1000 
1000 1000 1000 1000 1000 1000 1000 1000 1000 
1000 1000 1000 1000 1000 1000 1000 1000 1000 
1000 1000 1000 1000 1000 1000 1000 1000 1000 
1000 1000 1000 1000 1000 1000 1000 1000 1000 
1000 1000 1000 1000 1000 1000 1000 1000 1000 
1000 1000 1000 1000 1000 1000 1000 1000 1000 
1000 1000 1000 1000 1000 1000 1000 1000 1000 
1000 1000 1000 1000 1000 1000 1000 1000 1000 
1000 1000 1000 1000 1000 1000 1000 1000 1000 
1000 1000 1000 1000 1000 1000 1000 1000 1000 
1000 1000 1000 1000 1000 1000 1000 1000 1000 
1000 1000 1000 1000 1000 1000 1000 1000 1000 
1000 1000 1000 1000 1000 1000 1000 1000 1000 
1000 1000 1000 1000 1000 1000 1000 1000 1000 
1000 1000 1000 1000 1000 1000 1000 1000 1000 
1000 1000 1000 1000 1000 1000 1000 1000 1000 
1000 1000 1000 1000 1000 1000 1000 1000 1000 
1000 1000 1000 1000 1000 1000 1000 1000 1000 
1000 1000 1000 1000 1000 1000 1000 
Pressure 1 241 float
0 0 0 0 0 0 0 0 0 
0 0 0 0 0 0 0 0 0 
0 0 0 0 0 0 0 0 0 
0 0 0 0 0 0 0 0 0 
0 0 0 0 0 0 0 0 0 
0 0 0 0 0 0 0 0 0 
0 0 0 0 0 0 0 0 0 
0 0 0 0 0 0 0 0 0 
0 0 0 0 0 0 0 0 0 
0 0 0 0 0 0 0 0 0 
0 0 0 0 0 0 0 0 0 
0 0 0 0 0 0 0 0 0 
0 0 0 0 0 0 0 0 0 
0 0 0 0 0 0 0 0 0 
0 0 0 0 0 0 0 0 0 
0 0 0 0 0 0 0 0 0 
0 0 0 0 0 0 0 0 0 
0 0 0 0 0 0 0 0 0 
0 0 0 0 0 0 0 0 0 
0 0 0 0 0 0 0 0 0 
0 0 0 0 0 0 0 0 0 
0 0 0 0 0 0 0 0 0 
0 0 0 0 0 0 0 0 0 
0 0 0 0 0 0 0 0 0 
0 0 0 0 0 0 0 0 0 
0 0 0 0 0 0 0 0 0 
0 0 0 0 0 0 0 
