# vtk DataFile Version 5.1
vtk output
ASCII
DATASET POLYDATA
POINTS 109 float
0 0 0.02 0 0 0.04 0 0 0.06 
0 0 0.08 0 0 0.1 0 0 0.12 
0 0 0.14 0 0 0.16 0 0 0.18 
0 0 0.2 0 0 0.22 0 0 0.24 
0 0 0.26 0 0 0.28 0 0 0.3 
0 0 0.32 0 0 0.34 0 0 0.36 
0 0 0.38 0 0 0.4 0 0 0.42 
0 0 0.44 0 0 0.46 0 0 0.48 
0 0 0.5 0 0 0.52 0 0 0.54 
0 0 0.56 0 0 0.58 0.02 0 0 
0.04 0 0 0.06 0 0 0.08 0 0 
0.1 0 0 0.12 0 0 0.14 0 0 
0.16 0 0 0.18 0 0 0.2 0 0 
0.22 0 0 0.24 0 0 0.26 0 0 
0.28 0 0 0.3 0 0 0.32 0 0 
0.34 0 0 0.36 0 0 0.38 0 0 
0.4 0 0 0.42 0 0 0.44 0 0 
0.46 0 0 0.48 0 0 0.5 0 0 
0.52 0 0 0.54 0 0 0.56 0 0 
0.58 0 0 0.6 0 0 0.62 0 0 
0.64 0 0 0.66 0 0 0.68 0 0 
0.7 0 0 0.72 0 0 0.74 0 0 
0.76 0 0 0.78 0 0 0.8 0 0 
0.82 0 0 0.84 0 0 0.86 0 0 
0.88 0 0 0.9 0 0 0.92 0 0 
0.94 0 0 0.96 0 0 0.98 0 0 
0 0 0 1 0 0 1 0 0.02 
1 0 0.04 1 0 0.06 1 0 0.08 
1 0 0.1 1 0 0.12 1 0 0.14 
1 0 0.16 1 0 0.18 1 0 0.2 
1 0 0.22 1 0 0.24 1 0 0.26 
1 0 0.28 1 0 0.3 1 0 0.32 
1 0 0.34 1 0 0.36 1 0 0.38 
1 0 0.4 1 0 0.42 1 0 0.44 
1 0 0.46 1 0 0.48 1 0 0.5 
1 0 0.52 1 0 0.54 1 0 0.56 
1 0 0.58 
VERTICES 110 109
OFFSETS vtktypeint64
0 1 2 3 4 5 6 7 8 
9 10 11 12 13 14 15 16 17 
18 19 20 21 22 23 24 25 26 
27 28 29 30 31 32 33 34 35 
36 37 38 39 40 41 42 43 44 
45 46 47 48 49 50 51 52 53 
54 55 56 57 58 59 60 61 62 
63 64 65 66 67 68 69 70 71 
72 73 74 75 76 77 78 79 80 
81 82 83 84 85 86 87 88 89 
90 91 92 93 94 95 96 97 98 
99 100 101 102 103 104 105 106 107 
108 109 
CONNECTIVITY vtktypeint64
0 1 2 3 4 5 6 7 8 
9 10 11 12 13 14 15 16 17 
18 19 20 21 22 23 24 25 26 
27 28 29 30 31 32 33 34 35 
36 37 38 39 40 41 42 43 44 
45 46 47 48 49 50 51 52 53 
54 55 56 57 58 59 60 61 62 
63 64 65 66 67 68 69 70 71 
72 73 74 75 76 77 78 79 80 
81 82 83 84 85 86 87 88 89 
90 91 92 93 94 95 96 97 98 
99 100 101 102 103 104 105 106 107 
108 
POINT_DATA 109
FIELD FieldData 3
Velocity 3 109 float
0 0 0 0 0 0 0 0 0 
0 0 0 0 0 0 0 0 0 
0 0 0 0 0 0 0 0 0 
0 0 0 0 0 0 0 0 0 
0 0 0 0 0 0 0 0 0 
0 0 0 0 0 0 0 0 0 
0 0 0 0 0 0 0 0 0 
0 0 0 0 0 0 0 0 0 
0 0 0 0 0 0 0 0 0 
0 0 0 0 0 0 0 0 0 
0 0 0 0 0 0 0 0 0 
0 0 0 0 0 0 0 0 0 
0 0 0 0 0 0 0 0 0 
0 0 0 0 0 0 0 0 0 
0 0 0 0 0 0 0 0 0 
0 0 0 0 0 0 0 0 0 
0 0 0 0 0 0 0 0 0 
0 0 0 0 0 0 0 0 0 
0 0 0 0 0 0 0 0 0 
0 0 0 0 0 0 0 0 0 
0 0 0 0 0 0 0 0 0 
0 0 0 0 0 0 0 0 0 
0 0 0 0 0 0 0 0 0 
0 0 0 0 0 0 0 0 0 
0 0 0 0 0 0 0 0 0 
0 0 0 0 0 0 0 0 0 
0 0 0 0 0 0 0 0 0 
0 0 0 0 0 0 0 0 0 
0 0 0 0 0 0 0 0 0 
0 0 0 0 0 0 0 0 0 
0 0 0 0 0 0 0 0 0 
0 0 0 0 0 0 0 0 0 
0 0 0 0 0 0 0 0 0 
0 0 0 0 0 0 0 0 0 
0 0 0 0 0 0 0 0 0 
0 0 0 0 0 0 0 0 0 
0 0 0 
Density 1 109 float
1000 1000 1000 1000 1000 1000 1000 1000 1000 
1000 1000 1000 1000 1000 1000 1000 1000 1000 
1000 1000 1000 1000 1000 1000 1000 1000 1000 
1000 1000 1000 1000 1000 1000 1000 1000 1000 
1000 1000 1000 1000 1000 1000 1000 1000 1000 
1000 1000 1000 1000 1000 1000 1000 1000 1000 
1000 1000 1000 1000 1000 1000 1000 1000 1000 
1000 1000 1000 1000 1000 1000 1000 1000 1000 
1000 1000 1000 1000 1000 1000 1000 1000 1000 
1000 1000 1000 1000 1000 1000 1000 1000 1000 
1000 1000 1000 1000 1000 1000 1000 1000 1000 
1000 1000 1000 1000 1000 1000 1000 1000 1000 
1000 
Pressure 1 109 float
0 0 0 0 0 0 0 0 0 
0 0 0 0 0 0 0 0 0 
0 0 0 0 0 0 0 0 0 
0 0 0 0 0 0 0 0 0 
0 0 0 0 0 0 0 0 0 
0 0 0 0 0 0 0 0 0 
0 0 0 0 0 0 0 0 0 
0 0 0 0 0 0 0 0 0 
0 0 0 0 0 0 0 0 0 
0 0 0 0 0 0 0 0 0 
0 0 0 0 0 0 0 0 0 
0 0 0 0 0 0 0 0 0 
0 
