# vtk DataFile Version 5.1
vtk output
ASCII
DATASET POLYDATA
POINTS 117 float
0.02 0 0.02 0.04 0 0.02 0.06 0 0.02 
0.08 0 0.02 0.1 0 0.02 0.12 0 0.02 
0.14 0 0.02 0.16 0 0.02 0.18 0 0.02 
0.2 0 0.02 0.22 0 0.02 0.24 0 0.02 
0.26 0 0.02 0.28 0 0.02 0.3 0 0.02 
0.32 0 0.02 0.34 0 0.02 0.36 0 0.02 
0.38 0 0.02 0.4 0 0.02 0.42 0 0.02 
0.44 0 0.02 0.46 0 0.02 0.48 0 0.02 
0.5 0 0.02 0.52 0 0.02 0.54 0 0.02 
0.56 0 0.02 0.58 0 0.02 0.6 0 0.02 
0.62 0 0.02 0.64 0 0.02 0.66 0 0.02 
0.68 0 0.02 0.7 0 0.02 0.72 0 0.02 
0.74 0 0.02 0.76 0 0.02 0.78 0 0.02 
0.02 0 0.04 0.04 0 0.04 0.06 0 0.04 
0.08 0 0.04 0.1 0 0.04 0.12 0 0.04 
0.14 0 0.04 0.16 0 0.04 0.18 0 0.04 
0.2 0 0.04 0.22 0 0.04 0.24 0 0.04 
0.26 0 0.04 0.28 0 0.04 0.3 0 0.04 
0.32 0 0.04 0.34 0 0.04 0.36 0 0.04 
0.38 0 0.04 0.4 0 0.04 0.42 0 0.04 
0.44 0 0.04 0.46 0 0.04 0.48 0 0.04 
0.5 0 0.04 0.52 0 0.04 0.54 0 0.04 
0.56 0 0.04 0.58 0 0.04 0.6 0 0.04 
0.62 0 0.04 0.64 0 0.04 0.66 0 0.04 
0.68 0 0.04 0.7 0 0.04 0.72 0 0.04 
0.74 0 0.04 0.76 0 0.04 0.78 0 0.04 
0.02 0 0.06 0.04 0 0.06 0.06 0 0.06 
0.08 0 0.06 0.1 0 0.06 0.12 0 0.06 
0.14 0 0.06 0.16 0 0.06 0.18 0 0.06 
0.2 0 0.06 0.22 0 0.06 0.24 0 0.06 
0.26 0 0.06 0.28 0 0.06 0.3 0 0.06 
0.32 0 0.06 0.34 0 0.06 0.36 0 0.06 
0.38 0 0.06 0.4 0 0.06 0.42 0 0.06 
0.44 0 0.06 0.46 0 0.06 0.48 0 0.06 
0.5 0 0.06 0.52 0 0.06 0.54 0 0.06 
0.56 0 0.06 0.58 0 0.06 0.6 0 0.06 
0.62 0 0.06 0.64 0 0.06 0.66 0 0.06 
0.68 0 0.06 0.7 0 0.06 0.72 0 0.06 
0.74 0 0.06 0.76 0 0.06 0.78 0 0.06 

VERTICES 118 117
OFFSETS vtktypeint64
0 1 2 3 4 5 6 7 8 
9 10 11 12 13 14 15 16 17 
18 19 20 21 22 23 24 25 26 
27 28 29 30 31 32 33 34 35 
36 37 38 39 40 41 42 43 44 
45 46 47 48 49 50 51 52 53 
54 55 56 57 58 59 60 61 62 
63 64 65 66 67 68 69 70 71 
72 73 74 75 76 77 78 79 80 
81 82 83 84 85 86 87 88 89 
90 91 92 93 94 95 96 97 98 
99 100 101 102 103 104 105 106 107 
108 109 110 111 112 113 114 115 116 
117 
CONNECTIVITY vtktypeint64
0 1 2 3 4 5 6 7 8 
9 10 11 12 13 14 15 16 17 
18 19 20 21 22 23 24 25 26 
27 28 29 30 31 32 33 34 35 
36 37 38 39 40 41 42 43 44 
45 46 47 48 49 50 51 52 53 
54 55 56 57 58 59 60 61 62 
63 64 65 66 67 68 69 70 71 
72 73 74 75 76 77 78 79 80 
81 82 83 84 85 86 87 88 89 
90 91 92 93 94 95 96 97 98 
99 100 101 102 103 104 105 106 107 
108 109 110 111 112 113 114 115 116 

POINT_DATA 117
FIELD FieldData 3
Velocity 3 117 float
0 0 0 0 0 0 0 0 0 
0 0 0 0 0 0 0 0 0 
0 0 0 0 0 0 0 0 0 
0 0 0 0 0 0 0 0 0 
0 0 0 0 0 0 0 0 0 
0 0 0 0 0 0 0 0 0 
0 0 0 0 0 0 0 0 0 
0 0 0 0 0 0 0 0 0 
0 0 0 0 0 0 0 0 0 
0 0 0 0 0 0 0 0 0 
0 0 0 0 0 0 0 0 0 
0 0 0 0 0 0 0 0 0 
0 0 0 0 0 0 0 0 0 
0 0 0 0 0 0 0 0 0 
0 0 0 0 0 0 0 0 0 
0 0 0 0 0 0 0 0 0 
0 0 0 0 0 0 0 0 0 
0 0 0 0 0 0 0 0 0 
0 0 0 0 0 0 0 0 0 
0 0 0 0 0 0 0 0 0 
0 0 0 0 0 0 0 0 0 
0 0 0 0 0 0 0 0 0 
0 0 0 0 0 0 0 0 0 
0 0 0 0 0 0 0 0 0 
0 0 0 0 0 0 0 0 0 
0 0 0 0 0 0 0 0 0 
0 0 0 0 0 0 0 0 0 
0 0 0 0 0 0 0 0 0 
0 0 0 0 0 0 0 0 0 
0 0 0 0 0 0 0 0 0 
0 0 0 0 0 0 0 0 0 
0 0 0 0 0 0 0 0 0 
0 0 0 0 0 0 0 0 0 
0 0 0 0 0 0 0 0 0 
0 0 0 0 0 0 0 0 0 
0 0 0 0 0 0 0 0 0 
0 0 0 0 0 0 0 0 0 
0 0 0 0 0 0 0 0 0 
0 0 0 0 0 0 0 0 0 

Density 1 117 float
1000 1000 1000 1000 1000 1000 1000 1000 1000 
1000 1000 1000 1000 1000 1000 1000 1000 1000 
1000 1000 1000 1000 1000 1000 1000 1000 1000 
1000 1000 1000 1000 1000 1000 1000 1000 1000 
1000 1000 1000 1000 1000 1000 1000 1000 1000 
1000 1000 1000 1000 1000 1000 1000 1000 1000 
1000 1000 1000 1000 1000 1000 1000 1000 1000 
1000 1000 1000 1000 1000 1000 1000 1000 1000 
1000 1000 1000 1000 1000 1000 1000 1000 1000 
1000 1000 1000 1000 1000 1000 1000 1000 1000 
1000 1000 1000 1000 1000 1000 1000 1000 1000 
1000 1000 1000 1000 1000 1000 1000 1000 1000 
1000 1000 1000 1000 1000 1000 1000 1000 1000 

Pressure 1 117 float
0 0 0 0 0 0 0 0 0 
0 0 0 0 0 0 0 0 0 
0 0 0 0 0 0 0 0 0 
0 0 0 0 0 0 0 0 0 
0 0 0 0 0 0 0 0 0 
0 0 0 0 0 0 0 0 0 
0 0 0 0 0 0 0 0 0 
0 0 0 0 0 0 0 0 0 
0 0 0 0 0 0 0 0 0 
0 0 0 0 0 0 0 0 0 
0 0 0 0 0 0 0 0 0 
0 0 0 0 0 0 0 0 0 
0 0 0 0 0 0 0 0 0 

