# vtk DataFile Version 5.1
vtk output
ASCII
DATASET POLYDATA
POINTS 4 float
1.605 0 0.003 1.605 0 0.015 1.605 0 0.03 
1.605 0 0.08 
VERTICES 5 4
OFFSETS vtktypeint64
0 1 2 3 4 
CONNECTIVITY vtktypeint64
0 1 2 3 
POINT_DATA 4
FIELD FieldData 3
Velocity 3 4 float
0 0 0 0 0 0 0 0 0 
0 0 0 
Density 1 4 float
0 0 0 0 
Pressure 1 4 float
0 0 0 0 
